LAMMPS data file for rigid patchy monomers

240 atoms
3 atom types

0.0 34.19951893353393 xlo xhi
0.0 34.19951893353393 ylo yhi
0.0 34.19951893353393 zlo zhi

Masses

1 5.0
2 1e-15
3 1e-15

Atoms # molecular

1 1 1 29.988035577385862 11.541912417923161 8.617475873140055
2 1 1 29.988035577385862 12.4079378217076 7.117475873140055
3 1 1 29.988035577385862 10.675887014138722 7.117475873140055
4 1 3 30.988035577385862 11.541912417923161 7.947475873140055
5 1 3 30.988035577385862 11.827700801172025 7.452475873140055
6 1 3 30.988035577385862 11.256124034674297 7.452475873140055
7 2 1 8.23670994950089 19.149624625826974 20.9660545927919
8 2 1 8.23670994950089 20.01565002961141 19.4660545927919
9 2 1 8.23670994950089 18.283599222042536 19.4660545927919
10 2 2 9.23670994950089 19.149624625826974 20.296054592791897
11 2 2 9.23670994950089 19.435413009075837 19.8010545927919
12 2 2 9.23670994950089 18.86383624257811 19.8010545927919
13 3 1 31.034971596477167 21.7360423639551 25.56683885214782
14 3 1 31.034971596477167 22.602067767739538 24.06683885214782
15 3 1 31.034971596477167 20.870016960170663 24.06683885214782
16 3 2 32.03497159647716 21.7360423639551 24.89683885214782
17 3 2 32.03497159647716 22.021830747203964 24.401838852147822
18 3 2 32.03497159647716 21.450253980706236 24.401838852147822
19 4 1 21.70678171500396 24.59745956071476 31.93873962975031
20 4 1 21.70678171500396 25.463484964499198 30.43873962975031
21 4 1 21.70678171500396 23.731434156930323 30.43873962975031
22 4 2 22.70678171500396 24.59745956071476 31.268739629750307
23 4 2 22.70678171500396 24.883247943963624 30.77373962975031
24 4 2 22.70678171500396 24.311671177465897 30.77373962975031
25 5 1 2.3516449029177577 5.187827182670876 12.06096771674146
26 5 1 2.3516449029177577 6.0538525864553145 10.56096771674146
27 5 1 2.3516449029177577 4.321801778886438 10.56096771674146
28 5 2 3.3516449029177577 5.187827182670876 11.39096771674146
29 5 2 3.3516449029177577 5.473615565919741 10.895967716741461
30 5 2 3.3516449029177577 4.902038799422011 10.895967716741461
31 6 1 31.038963861547234 23.870148574912093 22.37395076353971
32 6 1 31.038963861547234 24.73617397869653 20.87395076353971
33 6 1 31.038963861547234 23.004123171127656 20.87395076353971
34 6 2 32.03896386154723 23.870148574912093 21.70395076353971
35 6 2 32.03896386154723 24.155936958160957 21.20895076353971
36 6 2 32.03896386154723 23.58436019166323 21.20895076353971
37 7 1 23.623263481494476 16.1190634505274 12.867383698311103
38 7 1 23.623263481494476 16.985088854311837 11.367383698311103
39 7 1 23.623263481494476 15.25303804674296 11.367383698311103
40 7 2 24.623263481494476 16.1190634505274 12.197383698311103
41 7 2 24.623263481494476 16.404851833776263 11.702383698311104
42 7 2 24.623263481494476 15.833275067278535 11.702383698311104
43 8 1 15.289126678267403 24.051866457689442 32.919959389914794
44 8 1 15.289126678267403 24.91789186147388 31.419959389914798
45 8 1 15.289126678267403 23.185841053905005 31.419959389914798
46 8 2 16.2891266782674 24.051866457689442 32.2499593899148
47 8 2 16.2891266782674 24.337654840938306 31.7549593899148
48 8 2 16.2891266782674 23.76607807444058 31.7549593899148
49 9 1 22.4058857319686 25.90222075603781 8.227345512655035
50 9 1 22.4058857319686 26.768246159822247 6.7273455126550346
51 9 1 22.4058857319686 25.036195352253372 6.7273455126550346
52 9 2 23.4058857319686 25.90222075603781 7.557345512655035
53 9 2 23.4058857319686 26.188009139286674 7.0623455126550345
54 9 2 23.4058857319686 25.616432372788946 7.0623455126550345
55 10 1 2.9054653574118463 26.1912062507692 30.211241395902235
56 10 1 2.9054653574118463 27.057231654553636 28.711241395902235
57 10 1 2.9054653574118463 25.32518084698476 28.711241395902235
58 10 2 3.9054653574118463 26.1912062507692 29.541241395902233
59 10 2 3.9054653574118463 26.476994634018062 29.046241395902236
60 10 2 3.9054653574118463 25.905417867520335 29.046241395902236
61 11 1 2.8402744419806107 16.849971690874078 18.887401856782127
62 11 1 2.8402744419806107 17.715997094658515 17.387401856782127
63 11 1 2.8402744419806107 15.983946287089639 17.387401856782127
64 11 2 3.8402744419806107 16.849971690874078 18.217401856782125
65 11 2 3.8402744419806107 17.135760074122942 17.722401856782128
66 11 2 3.8402744419806107 16.564183307625214 17.722401856782128
67 12 1 19.9906934208923 3.538648744078766 29.952255244061558
68 12 1 19.9906934208923 4.404674147863204 28.452255244061558
69 12 1 19.9906934208923 2.672623340294327 28.452255244061558
70 12 2 20.9906934208923 3.538648744078766 29.282255244061556
71 12 2 20.9906934208923 3.8244371273276307 28.78725524406156
72 12 2 20.9906934208923 3.252860360829901 28.78725524406156
73 13 1 23.947635065375792 26.735408289411815 18.106441944641492
74 13 1 23.947635065375792 27.601433693196253 16.606441944641492
75 13 1 23.947635065375792 25.869382885627378 16.606441944641492
76 13 2 24.947635065375792 26.735408289411815 17.43644194464149
77 13 2 24.947635065375792 27.02119667266068 16.941441944641493
78 13 2 24.947635065375792 26.44961990616295 16.941441944641493
79 14 1 26.4052925091419 4.870749697853965 9.66839598243902
80 14 1 26.4052925091419 5.736775101638403 8.16839598243902
81 14 1 26.4052925091419 4.0047242940695265 8.16839598243902
82 14 2 27.4052925091419 4.870749697853965 8.99839598243902
83 14 2 27.4052925091419 5.15653808110283 8.50339598243902
84 14 2 27.4052925091419 4.5849613146051 8.50339598243902
85 15 1 9.861447387028704 16.134401391135746 16.88097508906124
86 15 1 9.861447387028704 17.000426794920184 15.380975089061241
87 15 1 9.861447387028704 15.268375987351307 15.380975089061241
88 15 2 10.861447387028704 16.134401391135746 16.21097508906124
89 15 2 10.861447387028704 16.42018977438461 15.715975089061242
90 15 2 10.861447387028704 15.848613007886883 15.715975089061242
91 16 1 23.38495208491276 7.355239084096698 19.04324086807126
92 16 1 23.38495208491276 8.221264487881136 17.54324086807126
93 16 1 23.38495208491276 6.489213680312259 17.54324086807126
94 16 2 24.38495208491276 7.355239084096698 18.373240868071257
95 16 2 24.38495208491276 7.6410274673455625 17.87824086807126
96 16 2 24.38495208491276 7.069450700847833 17.87824086807126
97 17 1 7.132186168433357 25.236076173930602 30.94466996173371
98 17 1 7.132186168433357 26.10210157771504 29.44466996173371
99 17 1 7.132186168433357 24.370050770146165 29.44466996173371
100 17 2 8.132186168433357 25.236076173930602 30.274669961733707
101 17 2 8.132186168433357 25.521864557179466 29.77966996173371
102 17 2 8.132186168433357 24.950287790681738 29.77966996173371
103 18 1 13.420167086993338 27.6510415924708 30.432478560626155
104 18 1 13.420167086993338 28.517066996255238 28.932478560626155
105 18 1 13.420167086993338 26.785016188686363 28.932478560626155
106 18 2 14.420167086993338 27.6510415924708 29.762478560626153
107 18 2 14.420167086993338 27.936829975719665 29.267478560626156
108 18 2 14.420167086993338 27.365253209221937 29.267478560626156
109 19 1 13.615276977970861 11.51528760369917 20.151551148496303
110 19 1 13.615276977970861 12.381313007483609 18.651551148496303
111 19 1 13.615276977970861 10.64926219991473 18.651551148496303
112 19 2 14.615276977970861 11.51528760369917 19.4815511484963
113 19 2 14.615276977970861 11.801075986948035 18.986551148496304
114 19 2 14.615276977970861 11.229499220450304 18.986551148496304
115 20 1 7.734450697773619 5.774930320501602 23.72754337205074
116 20 1 7.734450697773619 6.64095572428604 22.22754337205074
117 20 1 7.734450697773619 4.908904916717163 22.22754337205074
118 20 2 8.73445069777362 5.774930320501602 23.057543372050738
119 20 2 8.73445069777362 6.060718703750466 22.56254337205074
120 20 2 8.73445069777362 5.489141937252737 22.56254337205074
121 21 1 26.08781687444401 19.32552511000985 32.29643125967662
122 21 1 26.08781687444401 20.191550513794287 30.796431259676627
123 21 1 26.08781687444401 18.45949970622541 30.796431259676627
124 21 2 27.08781687444401 19.32552511000985 31.626431259676625
125 21 2 27.08781687444401 19.611313493258713 31.131431259676628
126 21 2 27.08781687444401 19.039736726760985 31.131431259676628
127 22 1 21.121326291825852 28.856301641929196 17.962204435296695
128 22 1 21.121326291825852 29.722327045713634 16.462204435296695
129 22 1 21.121326291825852 27.99027623814476 16.462204435296695
130 22 2 22.121326291825852 28.856301641929196 17.292204435296693
131 22 2 22.121326291825852 29.14209002517806 16.797204435296695
132 22 2 22.121326291825852 28.570513258680332 16.797204435296695
133 23 1 12.648326745784919 23.58397031830199 18.217631070038266
134 23 1 12.648326745784919 24.449995722086427 16.717631070038266
135 23 1 12.648326745784919 22.717944914517552 16.717631070038266
136 23 2 13.648326745784919 23.58397031830199 17.547631070038264
137 23 2 13.648326745784919 23.869758701550854 17.052631070038267
138 23 2 13.648326745784919 23.298181935053126 17.052631070038267
139 24 1 8.869019648933202 9.380781465481192 26.883639611656648
140 24 1 8.869019648933202 10.246806869265631 25.383639611656648
141 24 1 8.869019648933202 8.514756061696753 25.383639611656648
142 24 2 9.869019648933202 9.380781465481192 26.213639611656646
143 24 2 9.869019648933202 9.666569848730056 25.71863961165665
144 24 2 9.869019648933202 9.094993082232328 25.71863961165665
145 25 1 16.954934224497528 29.66359399568445 31.460700229563287
146 25 1 16.954934224497528 30.52961939946889 29.960700229563287
147 25 1 16.954934224497528 28.797568591900014 29.960700229563287
148 25 2 17.954934224497528 29.66359399568445 30.790700229563285
149 25 2 17.954934224497528 29.949382378933315 30.295700229563288
150 25 2 17.954934224497528 29.377805612435587 30.295700229563288
151 26 1 18.096710369512156 9.608336961593569 24.72551496268259
152 26 1 18.096710369512156 10.474362365378008 23.22551496268259
153 26 1 18.096710369512156 8.74231155780913 23.22551496268259
154 26 2 19.096710369512156 9.608336961593569 24.055514962682587
155 26 2 19.096710369512156 9.894125344842433 23.56051496268259
156 26 2 19.096710369512156 9.322548578344705 23.56051496268259
157 27 1 13.122986151369721 17.058851255656847 9.897142426216291
158 27 1 13.122986151369721 17.924876659441285 8.397142426216291
159 27 1 13.122986151369721 16.19282585187241 8.397142426216291
160 27 2 14.122986151369721 17.058851255656847 9.227142426216291
161 27 2 14.122986151369721 17.34463963890571 8.732142426216292
162 27 2 14.122986151369721 16.773062872407984 8.732142426216292
163 28 1 12.706799313805204 21.665661110129726 12.487836317632498
164 28 1 12.706799313805204 22.531686513914163 10.987836317632498
165 28 1 12.706799313805204 20.79963570634529 10.987836317632498
166 28 2 13.706799313805204 21.665661110129726 11.817836317632498
167 28 2 13.706799313805204 21.95144949337859 11.322836317632499
168 28 2 13.706799313805204 21.379872726880862 11.322836317632499
169 29 1 25.161693602235278 25.630255009770725 28.671874422604148
170 29 1 25.161693602235278 26.496280413555162 27.171874422604148
171 29 1 25.161693602235278 24.764229605986287 27.171874422604148
172 29 2 26.161693602235278 25.630255009770725 28.001874422604146
173 29 2 26.161693602235278 25.91604339301959 27.50687442260415
174 29 2 26.161693602235278 25.34446662652186 27.50687442260415
175 30 1 30.5967152367621 5.2144182280152895 30.421322559533525
176 30 1 30.5967152367621 6.080443631799728 28.921322559533525
177 30 1 30.5967152367621 4.348392824230851 28.921322559533525
178 30 2 31.5967152367621 5.2144182280152895 29.751322559533524
179 30 2 31.5967152367621 5.500206611264154 29.256322559533526
180 30 2 31.5967152367621 4.928629844766425 29.256322559533526
181 31 1 20.909694788541096 4.575780489809073 7.388281828310765
182 31 1 20.909694788541096 5.441805893593512 5.888281828310765
183 31 1 20.909694788541096 3.7097550860246344 5.888281828310765
184 31 2 21.909694788541096 4.575780489809073 6.718281828310765
185 31 2 21.909694788541096 4.861568873057938 6.223281828310765
186 31 2 21.909694788541096 4.2899921065602085 6.223281828310765
187 32 1 17.57454743008724 22.830642127127348 28.79836222974512
188 32 1 17.57454743008724 23.696667530911785 27.29836222974512
189 32 1 17.57454743008724 21.96461672334291 27.29836222974512
190 32 2 18.57454743008724 22.830642127127348 28.128362229745118
191 32 2 18.57454743008724 23.11643051037621 27.63336222974512
192 32 2 18.57454743008724 22.544853743878484 27.63336222974512
193 33 1 21.52053907566607 19.57015012687712 24.433136558914306
194 33 1 21.52053907566607 20.436175530661558 22.933136558914306
195 33 1 21.52053907566607 18.704124723092683 22.933136558914306
196 33 2 22.52053907566607 19.57015012687712 23.763136558914304
197 33 2 22.52053907566607 19.855938510125984 23.268136558914307
198 33 2 22.52053907566607 19.284361743628256 23.268136558914307
199 34 1 9.672384282110349 29.211579931873057 16.368598014524707
200 34 1 9.672384282110349 30.077605335657495 14.868598014524705
201 34 1 9.672384282110349 28.34555452808862 14.868598014524705
202 34 2 10.672384282110349 29.211579931873057 15.698598014524705
203 34 2 10.672384282110349 29.49736831512192 15.203598014524706
204 34 2 10.672384282110349 28.925791548624193 15.203598014524706
205 35 1 2.715614867820762 31.012534556664367 22.666448909652708
206 35 1 2.715614867820762 31.878559960448804 21.166448909652708
207 35 1 2.715614867820762 30.14650915287993 21.166448909652708
208 35 2 3.715614867820762 31.012534556664367 21.996448909652706
209 35 2 3.715614867820762 31.29832293991323 21.50144890965271
210 35 2 3.715614867820762 30.726746173415503 21.50144890965271
211 36 1 17.495940616823106 22.619225480953695 17.785976217409413
212 36 1 17.495940616823106 23.485250884738132 16.285976217409413
213 36 1 17.495940616823106 21.753200077169257 16.285976217409413
214 36 2 18.495940616823106 22.619225480953695 17.11597621740941
215 36 2 18.495940616823106 22.90501386420256 16.620976217409414
216 36 2 18.495940616823106 22.33343709770483 16.620976217409414
217 37 1 29.89425943437043 17.58039996472918 5.264761738408637
218 37 1 29.89425943437043 18.44642536851362 3.7647617384086374
219 37 1 29.89425943437043 16.714374560944744 3.7647617384086374
220 37 2 30.89425943437043 17.58039996472918 4.594761738408637
221 37 2 30.89425943437043 17.866188347978046 4.099761738408637
222 37 2 30.89425943437043 17.294611581480318 4.099761738408637
223 38 1 19.12497593676043 20.587878856860133 31.34593588774068
224 38 1 19.12497593676043 21.45390426064457 29.84593588774068
225 38 1 19.12497593676043 19.721853453075695 29.84593588774068
226 38 2 20.12497593676043 20.587878856860133 30.67593588774068
227 38 2 20.12497593676043 20.873667240108997 30.18093588774068
228 38 2 20.12497593676043 20.30209047361127 30.18093588774068
229 39 1 14.560700824248896 9.969953905478892 6.0217481083874755
230 39 1 14.560700824248896 10.835979309263331 4.5217481083874755
231 39 1 14.560700824248896 9.103928501694453 4.5217481083874755
232 39 2 15.560700824248896 9.969953905478892 5.351748108387476
233 39 2 15.560700824248896 10.255742288727756 4.8567481083874755
234 39 2 15.560700824248896 9.684165522230028 4.8567481083874755
235 40 1 16.675092932977172 16.03019379474801 3.9927651935248085
236 40 1 16.675092932977172 16.896219198532446 2.4927651935248085
237 40 1 16.675092932977172 15.16416839096357 2.4927651935248085
238 40 2 17.675092932977172 16.03019379474801 3.3227651935248086
239 40 2 17.675092932977172 16.315982177996872 2.8277651935248085
240 40 2 17.675092932977172 15.744405411499145 2.8277651935248085
