LAMMPS data file for rigid octahedron monomers

100 atoms
5 atom types

0.0 27.144176165949062 xlo xhi
0.0 27.144176165949062 ylo yhi
0.0 27.144176165949062 zlo zhi

Masses

1 0.5
2 1e-08
3 1e-08
4 1e-08
5 1e-08

Atoms # molecular

1 1 1 22.644176165949062 10.548058721983022 16.596117443966044
2 1 2 24.644176165949062 10.548058721983022 16.596117443966044
3 1 2 24.058389728322158 9.133845159609926 16.596117443966044
4 1 2 24.058389728322158 11.962272284356118 16.596117443966044
5 1 2 24.058389728322158 10.548058721983022 15.181903881592948
6 2 1 22.644176165949062 4.5 4.5
7 2 2 24.644176165949062 4.5 4.5
8 2 2 24.058389728322158 3.085786437626905 4.5
9 2 2 24.058389728322158 5.914213562373095 4.5
10 2 2 24.058389728322158 4.5 3.085786437626905
11 3 1 4.5 10.548058721983022 4.5
12 3 2 6.5 10.548058721983022 4.5
13 3 2 5.914213562373095 9.133845159609926 4.5
14 3 2 5.914213562373095 11.962272284356118 4.5
15 3 2 5.914213562373095 10.548058721983022 3.085786437626905
16 4 1 22.644176165949062 4.5 22.644176165949062
17 4 2 24.644176165949062 4.5 22.644176165949062
18 4 2 24.058389728322158 3.085786437626905 22.644176165949062
19 4 2 24.058389728322158 5.914213562373095 22.644176165949062
20 4 2 24.058389728322158 4.5 21.229962603575967
21 5 1 10.548058721983022 16.596117443966044 10.548058721983022
22 5 2 12.548058721983022 16.596117443966044 10.548058721983022
23 5 2 11.962272284356118 15.181903881592948 10.548058721983022
24 5 2 11.962272284356118 18.01033100633914 10.548058721983022
25 5 2 11.962272284356118 16.596117443966044 9.133845159609926
26 6 1 10.548058721983022 22.644176165949062 16.596117443966044
27 6 2 12.548058721983022 22.644176165949062 16.596117443966044
28 6 2 11.962272284356118 21.229962603575967 16.596117443966044
29 6 2 11.962272284356118 24.058389728322158 16.596117443966044
30 6 2 11.962272284356118 22.644176165949062 15.181903881592948
31 7 1 16.596117443966044 22.644176165949062 10.548058721983022
32 7 2 18.596117443966044 22.644176165949062 10.548058721983022
33 7 2 18.01033100633914 21.229962603575967 10.548058721983022
34 7 2 18.01033100633914 24.058389728322158 10.548058721983022
35 7 2 18.01033100633914 22.644176165949062 9.133845159609926
36 8 1 16.596117443966044 16.596117443966044 22.644176165949062
37 8 2 18.596117443966044 16.596117443966044 22.644176165949062
38 8 2 18.01033100633914 15.181903881592948 22.644176165949062
39 8 2 18.01033100633914 18.01033100633914 22.644176165949062
40 8 2 18.01033100633914 16.596117443966044 21.229962603575967
41 9 1 4.5 10.548058721983022 16.596117443966044
42 9 2 6.5 10.548058721983022 16.596117443966044
43 9 2 5.914213562373095 9.133845159609926 16.596117443966044
44 9 2 5.914213562373095 11.962272284356118 16.596117443966044
45 9 2 5.914213562373095 10.548058721983022 15.181903881592948
46 10 1 4.5 22.644176165949062 4.5
47 10 2 6.5 22.644176165949062 4.5
48 10 2 5.914213562373095 21.229962603575967 4.5
49 10 2 5.914213562373095 24.058389728322158 4.5
50 10 2 5.914213562373095 22.644176165949062 3.085786437626905
51 11 1 10.548058721983022 4.5 22.644176165949062
52 11 2 12.548058721983022 4.5 22.644176165949062
53 11 2 11.962272284356118 3.085786437626905 22.644176165949062
54 11 2 11.962272284356118 5.914213562373095 22.644176165949062
55 11 2 11.962272284356118 4.5 21.229962603575967
56 12 1 22.644176165949062 16.596117443966044 4.5
57 12 2 24.644176165949062 16.596117443966044 4.5
58 12 2 24.058389728322158 15.181903881592948 4.5
59 12 2 24.058389728322158 18.01033100633914 4.5
60 12 2 24.058389728322158 16.596117443966044 3.085786437626905
61 13 1 4.5 22.644176165949062 22.644176165949062
62 13 2 6.5 22.644176165949062 22.644176165949062
63 13 2 5.914213562373095 21.229962603575967 22.644176165949062
64 13 2 5.914213562373095 24.058389728322158 22.644176165949062
65 13 2 5.914213562373095 22.644176165949062 21.229962603575967
66 14 1 16.596117443966044 4.5 10.548058721983022
67 14 2 18.596117443966044 4.5 10.548058721983022
68 14 2 18.01033100633914 3.085786437626905 10.548058721983022
69 14 2 18.01033100633914 5.914213562373095 10.548058721983022
70 14 2 18.01033100633914 4.5 9.133845159609926
71 15 1 10.548058721983022 4.5 4.5
72 15 2 12.548058721983022 4.5 4.5
73 15 2 11.962272284356118 3.085786437626905 4.5
74 15 2 11.962272284356118 5.914213562373095 4.5
75 15 2 11.962272284356118 4.5 3.085786437626905
76 16 1 22.644176165949062 22.644176165949062 22.644176165949062
77 16 2 24.644176165949062 22.644176165949062 22.644176165949062
78 16 2 24.058389728322158 21.229962603575967 22.644176165949062
79 16 2 24.058389728322158 24.058389728322158 22.644176165949062
80 16 2 24.058389728322158 22.644176165949062 21.229962603575967
81 17 1 16.596117443966044 10.548058721983022 4.5
82 17 2 18.596117443966044 10.548058721983022 4.5
83 17 2 18.01033100633914 9.133845159609926 4.5
84 17 2 18.01033100633914 11.962272284356118 4.5
85 17 2 18.01033100633914 10.548058721983022 3.085786437626905
86 18 1 4.5 4.5 10.548058721983022
87 18 2 6.5 4.5 10.548058721983022
88 18 2 5.914213562373095 3.085786437626905 10.548058721983022
89 18 2 5.914213562373095 5.914213562373095 10.548058721983022
90 18 2 5.914213562373095 4.5 9.133845159609926
91 19 1 12.993393264016463 12.834948313953769 17.373470443579144
92 19 2 14.993393264016463 12.834948313953769 17.373470443579144
93 19 2 14.407606826389559 11.420734751580673 17.373470443579144
94 19 2 14.407606826389559 14.249161876326864 17.373470443579144
95 19 2 14.407606826389559 12.834948313953769 15.959256881206048
96 20 1 6.783291140198806 16.975859417694828 19.008205153914005
97 20 2 8.783291140198806 16.975859417694828 19.008205153914005
98 20 2 8.197504702571901 15.561645855321732 19.008205153914005
99 20 2 8.197504702571901 18.390072980067924 19.008205153914005
100 20 2 8.197504702571901 16.975859417694828 17.59399159154091
